                         Program Version 6.0.0  -   RELEASE   -
|  1> ! HF-3c Opt TightSCF
|  2>
|  3> %geom
|  4> 	optimizehydrogens true
|  5> end
|  6>
|  7> *xyz 0 1
|  8> H(2) 94.053101 95.579651 -47.388393
|  9> H(2) 93.333061 96.482246 -50.216503
| 10> H(2) 91.442993 94.847305 -49.949322
| 11> H(2) 93.050354 94.087502 -50.027538
| 12> H(2) 92.223206 94.262146 -48.460743
| 13> H(2) 94.666161 98.048378 -48.742676
| 14> H(2) 91.951332 97.732941 -49.190563
| 15> H(1) 90.922493 97.134789 -46.54533
| 16> H(1) 92.183914 92.192429 -43.641792
| 17> H(1) 90.888481 94.745415 -46.862087
| 18> H(1) 93.449921 97.771004 -44.707966
| 19> H(1) 92.870781 98.2043 -46.333961
| 20> H(1) 93.082275 99.468002 -45.097897
| 21> H(1) 89.671066 99.350357 -44.392143
| 22> H(1) 91.177132 100.294167 -44.481533
| 23> H(1) 89.652809 97.194633 -45.25256
| 24> H(1) 90.412285 99.69429 -45.973064
| 25> H(1) 92.393906 96.716225 -42.383892
| 26> N(2) 94.934998 97.276001 -48.150002
| 27> C(2) 94.320999 95.968002 -48.370998
| 28> C(2) 95.289001 94.991997 -49.035999
| 29> O(2) 95.830002 95.273003 -50.103001
| 30> C(2) 93.049004 96.089996 -49.240002
| 31> O(2) 92.116997 96.985001 -48.612
| 32> C(2) 92.394997 94.723999 -49.432999
| 33> C(1) 91.150002 95.734001 -44.952999
| 34> C(1) 91.511002 95.542999 -43.613998
| 35> C(1) 91.883003 94.282997 -43.152
| 36> C(1) 90.714996 97.095001 -45.476002
| 37> N(1) 91.397003 98.231003 -44.827
| 38> C(1) 91.896004 93.176003 -44.013
| 39> C(1) 91.167 94.617996 -45.816002
| 40> C(1) 92.791 98.431999 -45.271
| 41> C(1) 91.536003 93.348 -45.351002
| 42> I(1) 92.385002 94.073997 -41.117001
| 43> O(1) 91.524002 96.626999 -42.779999
| 44> I(1) 91.536003 91.734001 -46.681999
| 45> C(1) 90.613998 99.473 -44.924999
| 46> **                         ****END OF INPUT****
 Total Charge           Charge          ....    0
 Multiplicity           Mult            ....    1
 Number of Electrons    NEL             ....  148
Dispersion correction           -0.194336891
FINAL SINGLE POINT ENERGY      -852.631418621016
Dispersion correction             ... done (  0.1 sec)
Dispersion correction           -0.194161773
FINAL SINGLE POINT ENERGY      -852.641814199336
Dispersion correction             ... done (  0.1 sec)
Dispersion correction           -0.194131084
FINAL SINGLE POINT ENERGY      -852.648040555394
Dispersion correction             ... done (  0.1 sec)
FINAL SINGLE POINT ENERGY      -852.652382293463
FINAL SINGLE POINT ENERGY      -852.653511068445
FINAL SINGLE POINT ENERGY      -852.654156126977
FINAL SINGLE POINT ENERGY      -852.654910930795
FINAL SINGLE POINT ENERGY      -852.655714643358
FINAL SINGLE POINT ENERGY      -852.656749016015
FINAL SINGLE POINT ENERGY      -852.657865851889
FINAL SINGLE POINT ENERGY      -852.662445892660
FINAL SINGLE POINT ENERGY      -852.662478891915
FINAL SINGLE POINT ENERGY      -852.662496280698
FINAL SINGLE POINT ENERGY      -852.662502740992
FINAL SINGLE POINT ENERGY      -852.662505079972
FINAL SINGLE POINT ENERGY      -852.662507157732
FINAL SINGLE POINT ENERGY      -852.662509222489
Dispersion correction             ... done (  0.1 sec)
Dispersion correction           -0.195771943
FINAL SINGLE POINT ENERGY      -852.662510803084
Dispersion correction             ... done (  0.1 sec)
Dispersion correction           -0.195774841
FINAL SINGLE POINT ENERGY      -852.662511250212
Dispersion correction             ... done (  0.1 sec)
                    ***********************HURRAY********************

CARTESIAN COORDINATES (ANGSTROEM)
---------------------------------
  H     94.038479   95.569689  -47.454550
  H     93.274807   96.473969  -50.265552
  H     91.382054   94.793945  -49.906305
  H     92.979446   94.071193  -50.072634
  H     92.245758   94.220233  -48.481851
  H     94.945993   97.739093  -49.180003
  H     92.540880   97.775278  -48.372927
  H     90.810913   97.084691  -46.578035
  H     92.286559   92.253460  -43.617319
  H     90.892919   94.752761  -46.834407
  H     93.332918   97.544858  -45.249228
  H     92.814288   98.807152  -46.373890
  H     93.241622   99.222644  -44.710458
  H     89.608185   99.320587  -44.500220
  H     91.085099  100.281133  -44.431366
  H     89.644170   97.189502  -45.268727
  H     90.417416   99.805318  -45.997791
  H     91.748376   96.453848  -41.870954
  N     94.879568   97.311693  -48.236953
  C     94.283327   95.991255  -48.430952
  C     95.255738   95.022482  -49.100083
  O     95.773981   95.298420  -50.179630
  C     92.995012   96.081595  -49.279541
  O     92.059282   96.969489  -48.646997
  C     92.360193   94.702888  -49.444133
  C     91.174766   95.750219  -44.956553
  C     91.561403   95.582270  -43.621625
  C     91.961647   94.334456  -43.150248
  C     90.708858   97.097212  -45.489113
  N     91.383123   98.252283  -44.866206
  C     91.978144   93.216842  -43.997356
  C     91.195372   94.623634  -45.805618
  C     92.765958   98.469954  -45.336472
  C     91.592832   93.365818  -45.331063
  I     92.501296   94.159726  -41.121664
  O     91.570819   96.676967  -42.801668
  I     91.596656   91.735057  -46.641464
  C     90.578432   99.480163  -44.966410

 Multiplicity           Mult            ....    1
 Number of Electrons    NEL             ....  148
 Basis Dimension        Dim             ....  160

ORBITAL ENERGIES
----------------

  NO   OCC          E(Eh)            E(eV)
   0   2.0000     -20.455030      -556.6097
   1   2.0000     -20.368219      -554.2474
   2   2.0000     -20.337615      -553.4146
   3   2.0000     -15.375069      -418.3769
   4   2.0000     -15.374653      -418.3656
   5   2.0000     -11.317347      -307.9607
   6   2.0000     -11.292036      -307.2719
   7   2.0000     -11.278155      -306.8942
   8   2.0000     -11.257070      -306.3205
   9   2.0000     -11.232104      -305.6411
  10   2.0000     -11.229483      -305.5698
  11   2.0000     -11.222135      -305.3698
  12   2.0000     -11.211986      -305.0936
  13   2.0000     -11.209402      -305.0233
  14   2.0000     -11.201923      -304.8198
  15   2.0000     -11.178055      -304.1703
  16   2.0000     -11.173456      -304.0452
  17   2.0000     -11.172857      -304.0289
  18   2.0000      -1.458614       -39.6909
  19   2.0000      -1.395641       -37.9773
  20   2.0000      -1.367624       -37.2149
  21   2.0000      -1.212062       -32.9819
  22   2.0000      -1.188613       -32.3438
  23   2.0000      -1.184505       -32.2320
  24   2.0000      -1.074818       -29.2473
  25   2.0000      -1.058918       -28.8146
  26   2.0000      -1.055953       -28.7339
  27   2.0000      -0.956472       -26.0269
  28   2.0000      -0.946893       -25.7663
  29   2.0000      -0.943483       -25.6735
  30   2.0000      -0.923469       -25.1289
  31   2.0000      -0.905689       -24.6451
  32   2.0000      -0.858007       -23.3476
  33   2.0000      -0.840441       -22.8696
  34   2.0000      -0.813636       -22.1402
  35   2.0000      -0.781205       -21.2577
  36   2.0000      -0.771439       -20.9919
  37   2.0000      -0.734923       -19.9983
  38   2.0000      -0.709456       -19.3053
  39   2.0000      -0.694590       -18.9007
  40   2.0000      -0.668991       -18.2042
  41   2.0000      -0.648281       -17.6406
  42   2.0000      -0.643207       -17.5026
  43   2.0000      -0.636527       -17.3208
  44   2.0000      -0.632493       -17.2110
  45   2.0000      -0.623543       -16.9675
  46   2.0000      -0.616012       -16.7625
  47   2.0000      -0.598859       -16.2958
  48   2.0000      -0.587823       -15.9955
  49   2.0000      -0.578879       -15.7521
  50   2.0000      -0.574623       -15.6363
  51   2.0000      -0.567135       -15.4325
  52   2.0000      -0.562027       -15.2935
  53   2.0000      -0.550740       -14.9864
  54   2.0000      -0.547866       -14.9082
  55   2.0000      -0.537946       -14.6383
  56   2.0000      -0.533258       -14.5107
  57   2.0000      -0.528968       -14.3940
  58   2.0000      -0.518880       -14.1194
  59   2.0000      -0.507159       -13.8005
  60   2.0000      -0.502654       -13.6779
  61   2.0000      -0.495128       -13.4731
  62   2.0000      -0.475745       -12.9457
  63   2.0000      -0.467929       -12.7330
  64   2.0000      -0.456684       -12.4270
  65   2.0000      -0.432477       -11.7683
  66   2.0000      -0.409375       -11.1396
  67   2.0000      -0.390450       -10.6247
  68   2.0000      -0.389407       -10.5963
  69   2.0000      -0.378498       -10.2995
  70   2.0000      -0.351119        -9.5544
  71   2.0000      -0.326295        -8.8789
  72   2.0000      -0.321610        -8.7515
  73   2.0000      -0.301078        -8.1927
  74   0.0000       0.021608         0.5880
  75   0.0000       0.107907         2.9363
  76   0.0000       0.139389         3.7930
  77   0.0000       0.147489         4.0134
  78   0.0000       0.148820         4.0496

MULLIKEN ATOMIC CHARGES
-----------------------
   0 H :    0.164084
   1 H :    0.137223
   2 H :    0.148703
   3 H :    0.136172
   4 H :    0.143482
   5 H :    0.178907
   6 H :    0.309162
   7 H :    0.139962
   8 H :    0.164186
   9 H :    0.157556
  10 H :    0.132578
  11 H :    0.100674
  12 H :    0.132064
  13 H :    0.128142
  14 H :    0.129758
  15 H :    0.142927
  16 H :    0.108591
  17 H :    0.336089
  18 N :   -0.326205
  19 C :   -0.093722
  20 C :    0.330342
  21 O :   -0.334676
  22 C :    0.070745
  23 O :   -0.492101
  24 C :   -0.370194
  25 C :   -0.015581
  26 C :    0.205985
  27 C :   -0.143275
  28 C :   -0.132455
  29 N :   -0.298774
  30 C :   -0.113564
  31 C :   -0.117650
  32 C :   -0.254464
  33 C :   -0.139930
  34 I :    0.020736
  35 O :   -0.462339
  36 I :    0.033765
  37 C :   -0.256905
Sum of atomic charges:    0.0000000

LOEWDIN ATOMIC CHARGES
----------------------
   0 H :    0.100356
   1 H :    0.077370
   2 H :    0.098759
   3 H :    0.090019
   4 H :    0.096226
   5 H :    0.120681
   6 H :    0.229199
   7 H :    0.084289
   8 H :    0.109766
   9 H :    0.103285
  10 H :    0.083717
  11 H :    0.056232
  12 H :    0.083016
  13 H :    0.079975
  14 H :    0.081387
  15 H :    0.091305
  16 H :    0.061536
  17 H :    0.258921
  18 N :   -0.260038
  19 C :   -0.036530
  20 C :    0.221347
  21 O :   -0.221323
  22 C :    0.097287
  23 O :   -0.367368
  24 C :   -0.242912
  25 C :   -0.018260
  26 C :    0.172361
  27 C :    0.001250
  28 C :   -0.065255
  29 N :   -0.190691
  30 C :   -0.050384
  31 C :   -0.062083
  32 C :   -0.150512
  33 C :    0.025656
  34 I :   -0.144464
  35 O :   -0.320534
  36 I :   -0.141718
  37 C :   -0.151870

  Mayer bond orders larger than 0.100000
B(  0-H , 19-C ) :   0.9368 B(  1-H , 22-C ) :   0.9434 B(  2-H , 24-C ) :   0.9672
B(  3-H , 24-C ) :   0.9698 B(  4-H , 24-C ) :   0.9660 B(  5-H , 18-N ) :   0.9470
B(  6-H , 23-O ) :   0.8745 B(  7-H , 28-C ) :   0.9482 B(  8-H , 30-C ) :   0.9574
B(  9-H , 31-C ) :   0.9573 B( 10-H , 32-C ) :   0.9700 B( 11-H , 32-C ) :   0.9665
B( 12-H , 32-C ) :   0.9694 B( 13-H , 37-C ) :   0.9704 B( 14-H , 37-C ) :   0.9704
B( 15-H , 28-C ) :   0.9511 B( 16-H , 37-C ) :   0.9657 B( 17-H , 35-O ) :   0.8497
B( 18-N , 19-C ) :   1.2563 B( 18-N , 20-C ) :   0.4223 B( 18-N , 21-O ) :   0.1860
B( 19-C , 20-C ) :   0.7427 B( 19-C , 22-C ) :   0.9329 B( 20-C , 21-O ) :   2.0996
B( 22-C , 23-O ) :   0.9556 B( 22-C , 24-C ) :   1.0022 B( 25-C , 26-C ) :   1.3527
B( 25-C , 28-C ) :   0.9989 B( 25-C , 30-C ) :   0.1087 B( 25-C , 31-C ) :   1.4482
B( 26-C , 27-C ) :   1.3930 B( 26-C , 35-O ) :   1.0448 B( 27-C , 30-C ) :   1.4268
B( 27-C , 34-I ) :   0.9626 B( 28-C , 29-N ) :   0.9842 B( 29-N , 32-C ) :   0.9841
B( 29-N , 37-C ) :   0.9846 B( 30-C , 33-C ) :   1.4483 B( 31-C , 33-C ) :   1.4213
B( 33-C , 36-I ) :   0.9670

Dispersion correction           -0.195774416
FINAL SINGLE POINT ENERGY      -852.662511308839

DIPOLE MOMENT
-------------

Method             : SCF
Type of density    : Electron Density
Multiplicity       :   1
Irrep              :   0
Energy             :  -852.3598273548332145 Eh
Relativity type    :
Basis              : AO
                                X                 Y                 Z
Electronic contribution:    -41.327664195    -374.527013858     289.487530437
Nuclear contribution   :     40.982223177     374.849210019    -290.025416307
                        -----------------------------------------
Total Dipole Moment    :     -0.345441017       0.322196161      -0.537885870
                        -----------------------------------------
Magnitude (a.u.)       :      0.715863863
Magnitude (Debye)      :      1.819581336

Rotational constants in cm-1:             0.005665             0.003499             0.002559
Rotational constants in MHz :           169.840484           104.898519            76.721320

                             ****ORCA TERMINATED NORMALLY****
TOTAL RUN TIME: 0 days 0 hours 17 minutes 5 seconds 182 msec
