                         Program Version 6.0.0  -   RELEASE   -
|  1> ! HF-3c Opt TightSCF
|  2>
|  3> %geom
|  4> 	optimizehydrogens true
|  5> end
|  6>
|  7> *xyz 0 1
|  8> H 94.053101 95.579651 -47.388393
|  9> H 93.333061 96.482246 -50.216503
| 10> H 91.442993 94.847305 -49.949322
| 11> H 93.050354 94.087502 -50.027538
| 12> H 92.223206 94.262146 -48.460743
| 13> H 94.666161 98.048378 -48.742676
| 14> H 91.951332 97.732941 -49.190563
| 15> N 94.934998 97.276001 -48.150002
| 16> C 94.320999 95.968002 -48.370998
| 17> C 95.289001 94.991997 -49.035999
| 18> O 95.830002 95.273003 -50.103001
| 19> C 93.049004 96.089996 -49.240002
| 20> O 92.116997 96.985001 -48.612000
| 21> C 92.394997 94.723999 -49.432999
| 22> **                         ****END OF INPUT****
 Total Charge           Charge          ....    0
 Multiplicity           Mult            ....    1
 Number of Electrons    NEL             ....   54
Dispersion correction           -0.053925960
FINAL SINGLE POINT ENERGY      -357.128526086457
Dispersion correction             ... done (  0.1 sec)
Dispersion correction           -0.054132069
FINAL SINGLE POINT ENERGY      -357.139153315058
Dispersion correction             ... done (  0.1 sec)
Dispersion correction           -0.054403248
FINAL SINGLE POINT ENERGY      -357.144388846401
Dispersion correction             ... done (  0.1 sec)
FINAL SINGLE POINT ENERGY      -357.146698486575
FINAL SINGLE POINT ENERGY      -357.147097932347
FINAL SINGLE POINT ENERGY      -357.148264351036
FINAL SINGLE POINT ENERGY      -357.149469670007
FINAL SINGLE POINT ENERGY      -357.151155070525
FINAL SINGLE POINT ENERGY      -357.152499171264
FINAL SINGLE POINT ENERGY      -357.152575340742
FINAL SINGLE POINT ENERGY      -357.152703708460
FINAL SINGLE POINT ENERGY      -357.152741798545
Dispersion correction             ... done (  0.1 sec)
Dispersion correction           -0.055261139
FINAL SINGLE POINT ENERGY      -357.152754293927
Dispersion correction             ... done (  0.1 sec)
Dispersion correction           -0.055261334
FINAL SINGLE POINT ENERGY      -357.152757745042
Dispersion correction             ... done (  0.1 sec)
                    ***********************HURRAY********************

CARTESIAN COORDINATES (ANGSTROEM)
---------------------------------
  H     93.919902   95.657734  -47.408021
  H     93.308011   96.453263  -50.287260
  H     91.503058   94.708071  -50.080225
  H     93.121298   94.021570  -49.957349
  H     92.147049   94.260635  -48.503576
  H     94.855069   97.812082  -49.136437
  H     92.405395   97.774794  -48.468666
  N     94.745478   97.407398  -48.187136
  C     94.210057   96.060878  -48.379236
  C     95.257094   95.111098  -48.956707
  O     95.833425   95.376603  -50.009080
  C     92.976444   96.080017  -49.309749
  O     91.971201   96.949371  -48.764069
  C     92.402726   94.674655  -49.473226

 Multiplicity           Mult            ....    1
 Number of Electrons    NEL             ....   54
 Basis Dimension        Dim             ....   42

ORBITAL ENERGIES
----------------

  NO   OCC          E(Eh)            E(eV)
   0   2.0000     -20.451165      -556.5045
   1   2.0000     -20.330883      -553.2314
   2   2.0000     -15.374398      -418.3586
   3   2.0000     -11.312992      -307.8422
   4   2.0000     -11.273742      -306.7741
   5   2.0000     -11.253762      -306.2304
   6   2.0000     -11.176280      -304.1221
   7   2.0000      -1.455659       -39.6105
   8   2.0000      -1.359390       -36.9909
   9   2.0000      -1.181742       -32.1568
  10   2.0000      -1.054891       -28.7050
  11   2.0000      -0.940644       -25.5962
  12   2.0000      -0.853556       -23.2264
  13   2.0000      -0.767953       -20.8971
  14   2.0000      -0.702823       -19.1248
  15   2.0000      -0.665174       -18.1003
  16   2.0000      -0.644424       -17.5357
  17   2.0000      -0.620754       -16.8916
  18   2.0000      -0.574625       -15.6363
  19   2.0000      -0.570987       -15.5374
  20   2.0000      -0.558059       -15.1856
  21   2.0000      -0.546693       -14.8763
  22   2.0000      -0.533908       -14.5284
  23   2.0000      -0.496768       -13.5177
  24   2.0000      -0.450531       -12.2596
  25   2.0000      -0.407156       -11.0793
  26   2.0000      -0.298986        -8.1358
  27   0.0000       0.023951         0.6518
  28   0.0000       0.150433         4.0935
  29   0.0000       0.459155        12.4942
  30   0.0000       0.529004        14.3949
  31   0.0000       0.538801        14.6615

MULLIKEN ATOMIC CHARGES
-----------------------
   0 H :    0.163674
   1 H :    0.135880
   2 H :    0.148732
   3 H :    0.132669
   4 H :    0.142095
   5 H :    0.180161
   6 H :    0.309850
   7 N :   -0.323151
   8 C :   -0.094373
   9 C :    0.324577
  10 O :   -0.336761
  11 C :    0.072187
  12 O :   -0.486493
  13 C :   -0.369046
Sum of atomic charges:   -0.0000000

LOEWDIN ATOMIC CHARGES
----------------------
   0 H :    0.099995
   1 H :    0.076300
   2 H :    0.098668
   3 H :    0.087317
   4 H :    0.092818
   5 H :    0.121667
   6 H :    0.229675
   7 N :   -0.256138
   8 C :   -0.037055
   9 C :    0.215438
  10 O :   -0.223512
  11 C :    0.098163
  12 O :   -0.362415
  13 C :   -0.240921

  Mayer bond orders larger than 0.100000
B(  0-H ,  8-C ) :   0.9373 B(  1-H , 11-C ) :   0.9434 B(  2-H , 13-C ) :   0.9673
B(  3-H , 13-C ) :   0.9704 B(  4-H , 13-C ) :   0.9700 B(  5-H ,  7-N ) :   0.9466
B(  6-H , 12-O ) :   0.8753 B(  7-N ,  8-C ) :   1.2576 B(  7-N ,  9-C ) :   0.4222
B(  7-N , 10-O ) :   0.1865 B(  8-C ,  9-C ) :   0.7418 B(  8-C , 11-C ) :   0.9318
B(  9-C , 10-O ) :   2.0962 B( 11-C , 12-O ) :   0.9593 B( 11-C , 13-C ) :   1.0028

Dispersion correction           -0.055261692
FINAL SINGLE POINT ENERGY      -357.152757813494

DIPOLE MOMENT
-------------

Method             : SCF
Type of density    : Electron Density
Multiplicity       :   1
Irrep              :   0
Energy             :  -357.0415183239502426 Eh
Relativity type    :
Basis              : AO
                                X                 Y                 Z
Electronic contribution:      5.282780769       0.902574111       0.335132104
Nuclear contribution   :     -5.451510183      -1.133500722      -0.583554417
                        -----------------------------------------
Total Dipole Moment    :     -0.168729413      -0.230926612      -0.248422313
                        -----------------------------------------
Magnitude (a.u.)       :      0.378827613
Magnitude (Debye)      :      0.962903269

Rotational constants in cm-1:             0.127920             0.073845             0.053032
Rotational constants in MHz :          3834.958211          2213.806230          1589.855739

                             ****ORCA TERMINATED NORMALLY****
TOTAL RUN TIME: 0 days 0 hours 0 minutes 46 seconds 805 msec
