                         Program Version 6.0.0  -   RELEASE   -
|  1> ! DLPNO-CCSD(T) def2-sVP def2-SVP/C TightSCF RIJCOSX
|  2>
|  3> %maxcore 8000
|  4>
|  5> *xyz 0 1
|  6>   H          93.91990162390000     95.65773445800934    -47.40802070273314
|  7>   H          93.30801141922426     96.45326275144602    -50.28726030944897
|  8>   H          91.50305787251216     94.70807132341224    -50.08022535427754
|  9>   H          93.12129838847984     94.02156982836570    -49.95734939471789
| 10>   H          92.14704882947719     94.26063456761750    -48.50357598633570
| 11>   H          94.85506883559930     97.81208162807958    -49.13643705106401
| 12>   H          92.40539457746341     97.77479382802888    -48.46866582462970
| 13>   N          94.74547789662638     97.40739795327211    -48.18713620670538
| 14>   C          94.21005688312637     96.06087750851445    -48.37923622156991
| 15>   C          95.25709383120800     95.11109817116446    -48.95670726721396
| 16>   O          95.83342498409731     95.37660287965014    -50.00908047601286
| 17>   C          92.97644408059662     96.08001704769771    -49.30974946801626
| 18>   O          91.97120109702276     96.94937143511918    -48.76406915732202
| 19>   C          92.40272568066545     94.67465461962193    -49.47322557995207
| 20> **                         ****END OF INPUT****

CARTESIAN COORDINATES (ANGSTROEM)
---------------------------------
  H     93.919902   95.657734  -47.408021
  H     93.308011   96.453263  -50.287260
  H     91.503058   94.708071  -50.080225
  H     93.121298   94.021570  -49.957349
  H     92.147049   94.260635  -48.503576
  H     94.855069   97.812082  -49.136437
  H     92.405395   97.774794  -48.468666
  N     94.745478   97.407398  -48.187136
  C     94.210057   96.060878  -48.379236
  C     95.257094   95.111098  -48.956707
  O     95.833425   95.376603  -50.009080
  C     92.976444   96.080017  -49.309749
  O     91.971201   96.949371  -48.764069
  C     92.402726   94.674655  -49.473226

 Total Charge           Charge          ....    0
 Multiplicity           Mult            ....    1
 Number of Electrons    NEL             ....   54
 Basis Dimension        Dim             ....  133

ORBITAL ENERGIES
----------------

  NO   OCC          E(Eh)            E(eV)
   0   2.0000     -20.666587      -562.3664
   1   2.0000     -20.567407      -559.6676
   2   2.0000     -15.574186      -423.7952
   3   2.0000     -11.431279      -311.0609
   4   2.0000     -11.323264      -308.1217
   5   2.0000     -11.321216      -308.0659
   6   2.0000     -11.242893      -305.9347
   7   2.0000      -1.455474       -39.6055
   8   2.0000      -1.353215       -36.8228
   9   2.0000      -1.167211       -31.7614
  10   2.0000      -1.041600       -28.3434
  11   2.0000      -0.939757       -25.5721
  12   2.0000      -0.849991       -23.1294
  13   2.0000      -0.784965       -21.3600
  14   2.0000      -0.724295       -19.7091
  15   2.0000      -0.696196       -18.9445
  16   2.0000      -0.655220       -17.8294
  17   2.0000      -0.638862       -17.3843
  18   2.0000      -0.605685       -16.4815
  19   2.0000      -0.590801       -16.0765
  20   2.0000      -0.565684       -15.3931
  21   2.0000      -0.555426       -15.1139
  22   2.0000      -0.552208       -15.0263
  23   2.0000      -0.527232       -14.3467
  24   2.0000      -0.470415       -12.8006
  25   2.0000      -0.431520       -11.7422
  26   2.0000      -0.334127        -9.0920
  27   0.0000      -0.031382        -0.8540
  28   0.0000       0.082456         2.2437
  29   0.0000       0.179909         4.8956
  30   0.0000       0.189582         5.1588
  31   0.0000       0.219108         5.9622

MULLIKEN ATOMIC CHARGES
-----------------------
   0 H :    0.075416
   1 H :    0.034027
   2 H :    0.062373
   3 H :    0.042377
   4 H :    0.044497
   5 H :    0.124298
   6 H :    0.207157
   7 N :   -0.383571
   8 C :    0.012442
   9 C :    0.324613
  10 O :   -0.264113
  11 C :    0.183578
  12 O :   -0.446861
  13 C :   -0.016232
Sum of atomic charges:    0.0000000

LOEWDIN ATOMIC CHARGES
----------------------
   0 H :    0.030787
   1 H :    0.005768
   2 H :    0.032705
   3 H :    0.019734
   4 H :    0.024753
   5 H :    0.038941
   6 H :    0.084667
   7 N :   -0.236558
   8 C :   -0.013726
   9 C :    0.227390
  10 O :   -0.117768
  11 C :    0.124772
  12 O :   -0.188907
  13 C :   -0.032558

  Mayer bond orders larger than 0.100000
B(  0-H ,  8-C ) :   0.9508 B(  1-H , 11-C ) :   0.9533 B(  2-H , 13-C ) :   0.9782
B(  3-H , 13-C ) :   0.9750 B(  4-H , 13-C ) :   0.9760 B(  5-H ,  7-N ) :   0.9494
B(  6-H , 12-O ) :   0.9451 B(  7-N ,  8-C ) :   1.2697 B(  7-N ,  9-C ) :   0.3583
B(  7-N , 10-O ) :   0.1333 B(  8-C ,  9-C ) :   0.5970 B(  8-C , 11-C ) :   0.9412
B(  9-C , 10-O ) :   2.1466 B( 11-C , 12-O ) :   0.9649 B( 11-C , 13-C ) :   1.0176

E(0)                                       ...   -359.233055993
E(0)                                       ...   -359.233055993
E(CORR)(strong-pairs)                      ...     -1.172334190
E(CORR)(weak-pairs)                        ...     -0.002834922
E(CORR)(corrected)                         ...     -1.175169112
E(TOT)                                     ...   -360.408225105
E(CCSD(T))                                 ...   -360.459845213
FINAL SINGLE POINT ENERGY      -360.459845213053

DIPOLE MOMENT
-------------

Method             : SCF
Type of density    : Electron Density
Multiplicity       :   1
Irrep              :   0
Energy             :  -359.2330559884351260 Eh
Relativity type    :
Basis              : AO
                                X                 Y                 Z
Electronic contribution:      5.317834773       0.458288552       0.237832554
Nuclear contribution   :     -5.451510183      -1.133500722      -0.583554417
                        -----------------------------------------
Total Dipole Moment    :     -0.133675410      -0.675212170      -0.345721862
                        -----------------------------------------
Magnitude (a.u.)       :      0.770262420
Magnitude (Debye)      :      1.957851480

Rotational constants in cm-1:             0.127920             0.073845             0.053032
Rotational constants in MHz :          3834.958211          2213.806230          1589.855739

                             ****ORCA TERMINATED NORMALLY****
TOTAL RUN TIME: 0 days 0 hours 4 minutes 17 seconds 924 msec
