                         Program Version 6.0.0  -   RELEASE   -
|  1> ! HF-3c Opt TightSCF
|  2>
|  3> %geom
|  4> 	optimizehydrogens true
|  5> end
|  6>
|  7> *xyz 0 1
|  8> H 90.922493 97.134789 -46.545330
|  9> H 92.183914 92.192429 -43.641792
| 10> H 90.888481 94.745415 -46.862087
| 11> H 93.449921 97.771004 -44.707966
| 12> H 92.870781 98.204300 -46.333961
| 13> H 93.082275 99.468002 -45.097897
| 14> H 89.671066 99.350357 -44.392143
| 15> H 91.177132 100.294167 -44.481533
| 16> H 89.652809 97.194633 -45.252560
| 17> H 90.412285 99.694290 -45.973064
| 18> H 92.393906 96.716225 -42.383892
| 19> C 91.150002 95.734001 -44.952999
| 20> C 91.511002 95.542999 -43.613998
| 21> C 91.883003 94.282997 -43.152000
| 22> C 90.714996 97.095001 -45.476002
| 23> N 91.397003 98.231003 -44.827000
| 24> C 91.896004 93.176003 -44.013000
| 25> C 91.167000 94.617996 -45.816002
| 26> C 92.791000 98.431999 -45.271000
| 27> C 91.536003 93.348000 -45.351002
| 28> I 92.385002 94.073997 -41.117001
| 29> O 91.524002 96.626999 -42.779999
| 30> I 91.536003 91.734001 -46.681999
| 31> C 90.613998 99.473000 -44.924999
| 32> **                         ****END OF INPUT****
 Total Charge           Charge          ....    0
 Multiplicity           Mult            ....    1
 Number of Electrons    NEL             ....   94
Dispersion correction           -0.129739839
FINAL SINGLE POINT ENERGY      -495.495229026950
Dispersion correction             ... done (  0.1 sec)
Dispersion correction           -0.129357940
FINAL SINGLE POINT ENERGY      -495.499022506197
Dispersion correction             ... done (  0.1 sec)
Dispersion correction           -0.129094347
FINAL SINGLE POINT ENERGY      -495.500516133628
Dispersion correction             ... done (  0.1 sec)
FINAL SINGLE POINT ENERGY      -495.501419878628
FINAL SINGLE POINT ENERGY      -495.501936933097
FINAL SINGLE POINT ENERGY      -495.502185955462
FINAL SINGLE POINT ENERGY      -495.502369192576
FINAL SINGLE POINT ENERGY      -495.502570508896
FINAL SINGLE POINT ENERGY      -495.502779520373
FINAL SINGLE POINT ENERGY      -495.502914813966
FINAL SINGLE POINT ENERGY      -495.502947960508
Dispersion correction             ... done (  0.1 sec)
Dispersion correction           -0.129532154
FINAL SINGLE POINT ENERGY      -495.502955579332
Dispersion correction             ... done (  0.1 sec)
Dispersion correction           -0.129541932
FINAL SINGLE POINT ENERGY      -495.502958072342
Dispersion correction             ... done (  0.1 sec)
                    ***********************HURRAY********************

CARTESIAN COORDINATES (ANGSTROEM)
---------------------------------
  H     90.801689   97.080851  -46.571930
  H     92.254246   92.232436  -43.620146
  H     90.851773   94.733042  -46.825560
  H     93.369815   97.515338  -45.234026
  H     92.836967   98.707626  -46.430021
  H     93.280281   99.221723  -44.793504
  H     89.672284   99.336983  -44.487215
  H     91.164856  100.273752  -44.439289
  H     89.661475   97.205292  -45.245321
  H     90.468777   99.808653  -45.996196
  H     91.798741   96.445049  -41.878354
  C     91.174700   95.741765  -44.953003
  C     91.582614   95.572529  -43.624586
  C     91.971169   94.320162  -43.155511
  C     90.720991   97.094133  -45.482467
  N     91.424888   98.240453  -44.876401
  C     91.954388   93.199301  -43.998313
  C     91.161847   94.611862  -45.797801
  C     92.802333   98.434007  -45.372327
  C     91.547516   93.349551  -45.325458
  I     92.544461   94.144237  -41.136280
  O     91.624441   96.669956  -42.809304
  I     91.501446   91.714106  -46.629200
  C     90.638381   99.480798  -44.967014

 Multiplicity           Mult            ....    1
 Number of Electrons    NEL             ....   94
 Basis Dimension        Dim             ....  118

ORBITAL ENERGIES
----------------

  NO   OCC          E(Eh)            E(eV)
   0   2.0000     -20.368811      -554.2635
   1   2.0000     -15.378151      -418.4608
   2   2.0000     -11.292660      -307.2889
   3   2.0000     -11.232218      -305.6442
   4   2.0000     -11.228730      -305.5493
   5   2.0000     -11.221787      -305.3604
   6   2.0000     -11.213559      -305.1364
   7   2.0000     -11.210996      -305.0667
   8   2.0000     -11.208972      -305.0116
   9   2.0000     -11.175254      -304.0941
  10   2.0000     -11.174073      -304.0620
  11   2.0000      -1.396468       -37.9998
  12   2.0000      -1.214744       -33.0549
  13   2.0000      -1.188839       -32.3499
  14   2.0000      -1.075897       -29.2767
  15   2.0000      -1.055764       -28.7288
  16   2.0000      -0.959421       -26.1072
  17   2.0000      -0.948747       -25.8167
  18   2.0000      -0.923651       -25.1338
  19   2.0000      -0.903568       -24.5873
  20   2.0000      -0.841450       -22.8970
  21   2.0000      -0.814914       -22.1749
  22   2.0000      -0.782443       -21.2914
  23   2.0000      -0.735141       -20.0042
  24   2.0000      -0.694923       -18.9098
  25   2.0000      -0.646130       -17.5821
  26   2.0000      -0.638511       -17.3748
  27   2.0000      -0.633998       -17.2520
  28   2.0000      -0.617608       -16.8060
  29   2.0000      -0.599888       -16.3238
  30   2.0000      -0.585565       -15.9340
  31   2.0000      -0.570060       -15.5121
  32   2.0000      -0.551862       -15.0169
  33   2.0000      -0.535445       -14.5702
  34   2.0000      -0.530298       -14.4301
  35   2.0000      -0.519102       -14.1255
  36   2.0000      -0.508995       -13.8505
  37   2.0000      -0.497421       -13.5355
  38   2.0000      -0.477084       -12.9821
  39   2.0000      -0.467108       -12.7107
  40   2.0000      -0.432271       -11.7627
  41   2.0000      -0.390572       -10.6280
  42   2.0000      -0.388330       -10.5670
  43   2.0000      -0.376131       -10.2351
  44   2.0000      -0.351451        -9.5635
  45   2.0000      -0.329409        -8.9637
  46   2.0000      -0.320739        -8.7278
  47   0.0000       0.108721         2.9584
  48   0.0000       0.139158         3.7867
  49   0.0000       0.150035         4.0827
  50   0.0000       0.154830         4.2132
  51   0.0000       0.369407        10.0521

MULLIKEN ATOMIC CHARGES
-----------------------
   0 H :    0.122467
   1 H :    0.164476
   2 H :    0.153500
   3 H :    0.130103
   4 H :    0.109654
   5 H :    0.130966
   6 H :    0.127981
   7 H :    0.130320
   8 H :    0.144401
   9 H :    0.109415
  10 H :    0.336118
  11 C :   -0.017320
  12 C :    0.205797
  13 C :   -0.143040
  14 C :   -0.126407
  15 N :   -0.297758
  16 C :   -0.112970
  17 C :   -0.113665
  18 C :   -0.258309
  19 C :   -0.137736
  20 I :    0.020492
  21 O :   -0.462958
  22 I :    0.041376
  23 C :   -0.256903
Sum of atomic charges:    0.0000000

LOEWDIN ATOMIC CHARGES
----------------------
   0 H :    0.070852
   1 H :    0.109978
   2 H :    0.100122
   3 H :    0.081751
   4 H :    0.062661
   5 H :    0.082354
   6 H :    0.079853
   7 H :    0.081823
   8 H :    0.092240
   9 H :    0.062152
  10 H :    0.258949
  11 C :   -0.020659
  12 C :    0.172006
  13 C :    0.001453
  14 C :   -0.060308
  15 N :   -0.189885
  16 C :   -0.049560
  17 C :   -0.058515
  18 C :   -0.153242
  19 C :    0.028210
  20 I :   -0.144677
  21 O :   -0.321155
  22 I :   -0.134566
  23 C :   -0.151838

  Mayer bond orders larger than 0.100000
B(  0-H , 14-C ) :   0.9550 B(  1-H , 16-C ) :   0.9573 B(  2-H , 17-C ) :   0.9597
B(  3-H , 18-C ) :   0.9704 B(  4-H , 18-C ) :   0.9662 B(  5-H , 18-C ) :   0.9702
B(  6-H , 23-C ) :   0.9704 B(  7-H , 23-C ) :   0.9702 B(  8-H , 14-C ) :   0.9508
B(  9-H , 23-C ) :   0.9656 B( 10-H , 21-O ) :   0.8497 B( 11-C , 12-C ) :   1.3534
B( 11-C , 14-C ) :   0.9993 B( 11-C , 16-C ) :   0.1086 B( 11-C , 17-C ) :   1.4488
B( 12-C , 13-C ) :   1.3935 B( 12-C , 21-O ) :   1.0441 B( 13-C , 16-C ) :   1.4264
B( 13-C , 17-C ) :   0.1003 B( 13-C , 20-I ) :   0.9626 B( 14-C , 15-N ) :   0.9857
B( 15-N , 18-C ) :   0.9834 B( 15-N , 23-C ) :   0.9842 B( 16-C , 19-C ) :   1.4490
B( 17-C , 19-C ) :   1.4217 B( 19-C , 22-I ) :   0.9676

Dispersion correction           -0.129542364
FINAL SINGLE POINT ENERGY      -495.502958156903

DIPOLE MOMENT
-------------

Method             : SCF
Type of density    : Electron Density
Multiplicity       :   1
Irrep              :   0
Energy             :  -495.3201462347969937 Eh
Relativity type    :
Basis              : AO
                                X                 Y                 Z
Electronic contribution:     44.182888396    -293.632260816      63.348642960
Nuclear contribution   :    -44.358727398     294.169674881     -63.600666681
                        -----------------------------------------
Total Dipole Moment    :     -0.175839002       0.537414064      -0.252023721
                        -----------------------------------------
Magnitude (a.u.)       :      0.619071230
Magnitude (Debye)      :      1.573554013

Rotational constants in cm-1:             0.010437             0.006170             0.003984
Rotational constants in MHz :           312.894561           184.962582           119.443774

                             ****ORCA TERMINATED NORMALLY****
TOTAL RUN TIME: 0 days 0 hours 3 minutes 49 seconds 593 msec
