                         Program Version 6.0.0  -   RELEASE   -
|  1> ! DLPNO-CCSD(T) def2-sVP def2-SVP/C TightSCF RIJCOSX
|  2>
|  3> %maxcore 8000
|  4>
|  5> *xyz 0 1
|  6>   H          90.80168929210453     97.08085116300965    -46.57193000915602
|  7>   H          92.25424626177364     92.23243626565939    -43.62014550329094
|  8>   H          90.85177323196794     94.73304235238619    -46.82556049562201
|  9>   H          93.36981504377900     97.51533769262811    -45.23402558083308
| 10>   H          92.83696745506127     98.70762621408545    -46.43002100783585
| 11>   H          93.28028121980998     99.22172331444800    -44.79350399695687
| 12>   H          89.67228356372728     99.33698274119703    -44.48721496647420
| 13>   H          91.16485603254478    100.27375247266684    -44.43928861083612
| 14>   H          89.66147461737228     97.20529219629306    -45.24532056053374
| 15>   H          90.46877730415387     99.80865327214572    -45.99619638851848
| 16>   H          91.79874086904486     96.44504932468676    -41.87835397844324
| 17>   C          91.17469978489058     95.74176517378373    -44.95300334549989
| 18>   C          91.58261400445602     95.57252923728750    -43.62458638056314
| 19>   C          91.97116937928757     94.32016163893111    -43.15551062963478
| 20>   C          90.72099052700335     97.09413322540563    -45.48246714881835
| 21>   N          91.42488773426147     98.24045329671003    -44.87640056421961
| 22>   C          91.95438821015799     93.19930115960075    -43.99831304740559
| 23>   C          91.16184668115564     94.61186174357189    -45.79780113182746
| 24>   C          92.80233347114554     98.43400738251201    -45.37232705513890
| 25>   C          91.54751575625087     93.34955073194226    -45.32545769189590
| 26>   I          92.54446149537834     94.14423706078544    -41.13628017548026
| 27>   O          91.62444128477600     96.66995582686701    -42.80930440805347
| 28>   I          91.50144630098934     91.71410576211971    -46.62919966773659
| 29>   C          90.63838147890607     99.48079775127444    -44.96701365522497
| 30> **                         ****END OF INPUT****

CARTESIAN COORDINATES (ANGSTROEM)
---------------------------------
  H     90.801689   97.080851  -46.571930
  H     92.254246   92.232436  -43.620146
  H     90.851773   94.733042  -46.825560
  H     93.369815   97.515338  -45.234026
  H     92.836967   98.707626  -46.430021
  H     93.280281   99.221723  -44.793504
  H     89.672284   99.336983  -44.487215
  H     91.164856  100.273752  -44.439289
  H     89.661475   97.205292  -45.245321
  H     90.468777   99.808653  -45.996196
  H     91.798741   96.445049  -41.878354
  C     91.174700   95.741765  -44.953003
  C     91.582614   95.572529  -43.624586
  C     91.971169   94.320162  -43.155511
  C     90.720991   97.094133  -45.482467
  N     91.424888   98.240453  -44.876401
  C     91.954388   93.199301  -43.998313
  C     91.161847   94.611862  -45.797801
  C     92.802333   98.434007  -45.372327
  C     91.547516   93.349551  -45.325458
  I     92.544461   94.144237  -41.136280
  O     91.624441   96.669956  -42.809304
  I     91.501446   91.714106  -46.629200
  C     90.638381   99.480798  -44.967014

 Total Charge           Charge          ....    0
 Multiplicity           Mult            ....    1
 Number of Electrons    NEL             ....  130
 Basis Dimension        Dim             ....  261

ORBITAL ENERGIES
----------------

  NO   OCC          E(Eh)            E(eV)
   0   2.0000     -20.578753      -559.9763
   1   2.0000     -15.539091      -422.8402
   2   2.0000     -11.328078      -308.2527
   3   2.0000     -11.298954      -307.4602
   4   2.0000     -11.294347      -307.3348
   5   2.0000     -11.276570      -306.8511
   6   2.0000     -11.269250      -306.6519
   7   2.0000     -11.268989      -306.6448
   8   2.0000     -11.260223      -306.4062
   9   2.0000     -11.247324      -306.0553
  10   2.0000     -11.246168      -306.0238
  11   2.0000      -7.753151      -210.9740
  12   2.0000      -7.738810      -210.5837
  13   2.0000      -5.611456      -152.6955
  14   2.0000      -5.597457      -152.3146
  15   2.0000      -5.596962      -152.3011
  16   2.0000      -5.596017      -152.2754
  17   2.0000      -5.582054      -151.8954
  18   2.0000      -5.581912      -151.8916
  19   2.0000      -2.306409       -62.7606
  20   2.0000      -2.300822       -62.6085
  21   2.0000      -2.300040       -62.5873
  22   2.0000      -2.292425       -62.3801
  23   2.0000      -2.286257       -62.2122
  24   2.0000      -2.286193       -62.2105
  25   2.0000      -2.285909       -62.2027
  26   2.0000      -2.285882       -62.2020
  27   2.0000      -2.271239       -61.8036
  28   2.0000      -2.271236       -61.8035
  29   2.0000      -1.386465       -37.7276
  30   2.0000      -1.203777       -32.7564
  31   2.0000      -1.165513       -31.7152
  32   2.0000      -1.055728       -28.7278
  33   2.0000      -1.035179       -28.1686
  34   2.0000      -0.945443       -25.7268
  35   2.0000      -0.938271       -25.5317
  36   2.0000      -0.922043       -25.0901
  37   2.0000      -0.902629       -24.5618
  38   2.0000      -0.833921       -22.6921
  39   2.0000      -0.815001       -22.1773
  40   2.0000      -0.777909       -21.1680
  41   2.0000      -0.745874       -20.2963
  42   2.0000      -0.694276       -18.8922
  43   2.0000      -0.642879       -17.4936
  44   2.0000      -0.637693       -17.3525
  45   2.0000      -0.635442       -17.2912
  46   2.0000      -0.619708       -16.8631
  47   2.0000      -0.595499       -16.2043
  48   2.0000      -0.586711       -15.9652
  49   2.0000      -0.568910       -15.4808
  50   2.0000      -0.552628       -15.0378
  51   2.0000      -0.550147       -14.9703
  52   2.0000      -0.533229       -14.5099
  53   2.0000      -0.518901       -14.1200
  54   2.0000      -0.511964       -13.9313
  55   2.0000      -0.504057       -13.7161
  56   2.0000      -0.483580       -13.1589
  57   2.0000      -0.467861       -12.7311
  58   2.0000      -0.423694       -11.5293
  59   2.0000      -0.390904       -10.6370
  60   2.0000      -0.383663       -10.4400
  61   2.0000      -0.374115       -10.1802
  62   2.0000      -0.347073        -9.4443
  63   2.0000      -0.339964        -9.2509
  64   2.0000      -0.313935        -8.5426
  65   0.0000       0.087204         2.3729
  66   0.0000       0.098961         2.6929
  67   0.0000       0.119792         3.2597
  68   0.0000       0.127379         3.4662
  69   0.0000       0.171574         4.6688

MULLIKEN ATOMIC CHARGES
-----------------------
   0 H :    0.006540
   1 H :    0.057039
   2 H :    0.042494
   3 H :    0.035045
   4 H :   -0.001243
   5 H :    0.032178
   6 H :    0.028749
   7 H :    0.028127
   8 H :    0.044672
   9 H :   -0.002185
  10 H :    0.215874
  11 C :   -0.271711
  12 C :    0.311337
  13 C :   -0.294397
  14 C :    0.360865
  15 N :   -0.631341
  16 C :    0.067191
  17 C :    0.063980
  18 C :    0.169414
  19 C :   -0.272189
  20 I :    0.094991
  21 O :   -0.348613
  22 I :    0.096430
  23 C :    0.166751
Sum of atomic charges:    0.0000000

LOEWDIN ATOMIC CHARGES
----------------------
   0 H :    0.000564
   1 H :    0.034734
   2 H :    0.030120
   3 H :    0.012846
   4 H :   -0.009068
   5 H :    0.014002
   6 H :    0.011212
   7 H :    0.012861
   8 H :    0.024967
   9 H :   -0.010276
  10 H :    0.067179
  11 C :   -0.062005
  12 C :    0.100852
  13 C :   -0.225537
  14 C :    0.087641
  15 N :   -0.196660
  16 C :   -0.014821
  17 C :   -0.001902
  18 C :    0.061963
  19 C :   -0.210737
  20 I :    0.172036
  21 O :   -0.108460
  22 I :    0.147164
  23 C :    0.061324

  Mayer bond orders larger than 0.100000
B(  0-H , 14-C ) :   0.9727 B(  1-H , 16-C ) :   0.9987 B(  2-H , 17-C ) :   1.0023
B(  3-H , 18-C ) :   0.9914 B(  4-H , 18-C ) :   0.9756 B(  5-H , 18-C ) :   0.9916
B(  6-H , 23-C ) :   0.9912 B(  7-H , 23-C ) :   0.9921 B(  8-H , 14-C ) :   0.9629
B(  9-H , 23-C ) :   0.9762 B( 10-H , 21-O ) :   0.9286 B( 11-C , 12-C ) :   1.3859
B( 11-C , 14-C ) :   0.9654 B( 11-C , 17-C ) :   1.4695 B( 12-C , 13-C ) :   1.3987
B( 12-C , 21-O ) :   1.1614 B( 13-C , 16-C ) :   1.4238 B( 13-C , 20-I ) :   1.0154
B( 14-C , 15-N ) :   0.9682 B( 15-N , 18-C ) :   0.9307 B( 15-N , 23-C ) :   0.9510
B( 16-C , 19-C ) :   1.4441 B( 17-C , 19-C ) :   1.3870 B( 19-C , 22-I ) :   1.0230

E(0)                                       ...  -1069.428347806
E(0)                                       ...  -1069.428347806
E(CORR)(strong-pairs)                      ...     -1.868271186
E(CORR)(weak-pairs)                        ...     -0.012266790
E(CORR)(corrected)                         ...     -1.880537976
E(TOT)                                     ...  -1071.308885783
E(CCSD(T))                                 ...  -1071.375334997
FINAL SINGLE POINT ENERGY     -1071.375334997349

DIPOLE MOMENT
-------------

Method             : SCF
Type of density    : Electron Density
Multiplicity       :   1
Irrep              :   0
Energy             : -1069.4283478209595160 Eh
Relativity type    :
Basis              : AO
                                X                 Y                 Z
Electronic contribution:     31.297386092    -210.890601617      46.283435110
Nuclear contribution   :    -31.397972894     211.356284308     -46.293173660
                        -----------------------------------------
Total Dipole Moment    :     -0.100586802       0.465682691      -0.009738549
                        -----------------------------------------
Magnitude (a.u.)       :      0.476521681
Magnitude (Debye)      :      1.211221857

Rotational constants in cm-1:             0.010437             0.006170             0.003984
Rotational constants in MHz :           312.894561           184.962582           119.443774

                             ****ORCA TERMINATED NORMALLY****
TOTAL RUN TIME: 0 days 0 hours 19 minutes 23 seconds 584 msec
