                         Program Version 6.0.0  -   RELEASE   -
|  1> ! DLPNO-CCSD(T) def2-sVP def2-SVP/C TightSCF RIJCOSX LED
|  2>
|  3> %maxcore 8000
|  4>
|  5> *xyz 0 1
|  6> H(2) 94.03847900363128 95.56968873089886 -47.45454979409845
|  7> H(2) 93.27480714279287 96.47396852739881 -50.26555167908275
|  8> H(2) 91.3820536990671 94.79394468963362 -49.90630467715645
|  9> H(2) 92.97944576730984 94.07119266069336 -50.07263368634954
| 10> H(2) 92.2457582586205 94.22023321699045 -48.48185090016032
| 11> H(2) 94.94599254061113 97.73909302232931 -49.180002723945
| 12> H(2) 92.54087957181535 97.77527788193504 -48.37292694760338
| 13> H(1) 90.81091290640504 97.084690986993 -46.5780346591331
| 14> H(1) 92.28655872467832 92.25346024200871 -43.61731856246633
| 15> H(1) 90.89291879073602 94.75276147613863 -46.83440660404441
| 16> H(1) 93.3329175660635 97.5448581371073 -45.24922823026197
| 17> H(1) 92.814287626496 98.80715230214386 -46.37389006921541
| 18> H(1) 93.24162195583997 99.22264427328545 -44.71045817447565
| 19> H(1) 89.6081854825604 99.32058650021226 -44.50021953198504
| 20> H(1) 91.08509928948806 100.28113283726921 -44.43136587612807
| 21> H(1) 89.64417014945856 97.1895015139239 -45.26872693162088
| 22> H(1) 90.4174157239609 99.80531765438535 -45.99779093389682
| 23> H(1) 91.74837611422923 96.45384841803603 -41.87095357364787
| 24> N(2) 94.8795681338068 97.31169285466524 -48.23695338999568
| 25> C(2) 94.28332716262726 95.9912547397665 -48.43095151040644
| 26> C(2) 95.25573762322547 95.02248212655729 -49.10008340242457
| 27> O(2) 95.77398138063315 95.29841968805736 -50.17963033920137
| 28> C(2) 92.99501211139518 96.08159529546519 -49.27954132879258
| 29> O(2) 92.05928217028189 96.9694888053435 -48.64699717158231
| 30> C(2) 92.36019262079112 94.7028877508946 -49.44413329214354
| 31> C(1) 91.1747663532547 95.75021850910848 -44.95655271175993
| 32> C(1) 91.56140310608849 95.5822703616219 -43.62162504004875
| 33> C(1) 91.96164715972675 94.33445604375484 -43.15024826900864
| 34> C(1) 90.7088575487796 97.09721203956359 -45.48911331004795
| 35> N(1) 91.38312294943528 98.25228346466449 -44.86620574535659
| 36> C(1) 91.97814364712971 93.21684173773455 -43.99735620637756
| 37> C(1) 91.19537179685118 94.62363366088144 -45.80561823787297
| 38> C(1) 92.76595771634025 98.46995445416428 -45.33647199889184
| 39> C(1) 91.5928323160744 93.36581781197711 -45.33106319833271
| 40> I(1) 92.50129642550272 94.15972551677119 -41.12166431770961
| 41> O(1) 91.57081910688392 96.67696681531916 -42.80166751139753
| 42> I(1) 91.59665572318659 91.73505725039921 -46.64146434097875
| 43> C(1) 90.57843163421632 99.48016300190164 -44.96641012239646
| 44> **                         ****END OF INPUT****

CARTESIAN COORDINATES (ANGSTROEM)
---------------------------------
  H     94.038479   95.569689  -47.454550
  H     93.274807   96.473969  -50.265552
  H     91.382054   94.793945  -49.906305
  H     92.979446   94.071193  -50.072634
  H     92.245758   94.220233  -48.481851
  H     94.945993   97.739093  -49.180003
  H     92.540880   97.775278  -48.372927
  H     90.810913   97.084691  -46.578035
  H     92.286559   92.253460  -43.617319
  H     90.892919   94.752761  -46.834407
  H     93.332918   97.544858  -45.249228
  H     92.814288   98.807152  -46.373890
  H     93.241622   99.222644  -44.710458
  H     89.608185   99.320587  -44.500220
  H     91.085099  100.281133  -44.431366
  H     89.644170   97.189502  -45.268727
  H     90.417416   99.805318  -45.997791
  H     91.748376   96.453848  -41.870954
  N     94.879568   97.311693  -48.236953
  C     94.283327   95.991255  -48.430952
  C     95.255738   95.022482  -49.100083
  O     95.773981   95.298420  -50.179630
  C     92.995012   96.081595  -49.279541
  O     92.059282   96.969489  -48.646997
  C     92.360193   94.702888  -49.444133
  C     91.174766   95.750219  -44.956553
  C     91.561403   95.582270  -43.621625
  C     91.961647   94.334456  -43.150248
  C     90.708858   97.097212  -45.489113
  N     91.383123   98.252283  -44.866206
  C     91.978144   93.216842  -43.997356
  C     91.195372   94.623634  -45.805618
  C     92.765958   98.469954  -45.336472
  C     91.592832   93.365818  -45.331063
  I     92.501296   94.159726  -41.121664
  O     91.570819   96.676967  -42.801668
  I     91.596656   91.735057  -46.641464
  C     90.578432   99.480163  -44.966410

 Total Charge           Charge          ....    0
 Multiplicity           Mult            ....    1
 Number of Electrons    NEL             ....  184
 Basis Dimension        Dim             ....  394

ORBITAL ENERGIES
----------------

  NO   OCC          E(Eh)            E(eV)
   0   2.0000     -20.669364      -562.4420
   1   2.0000     -20.577331      -559.9376
   2   2.0000     -20.576780      -559.9227
   3   2.0000     -15.573737      -423.7829
   4   2.0000     -15.532136      -422.6509
   5   2.0000     -11.434268      -311.1422
   6   2.0000     -11.327239      -308.2298
   7   2.0000     -11.326496      -308.2096
   8   2.0000     -11.322841      -308.1102
   9   2.0000     -11.299141      -307.4653
  10   2.0000     -11.296428      -307.3914
  11   2.0000     -11.277420      -306.8742
  12   2.0000     -11.268503      -306.6316
  13   2.0000     -11.258806      -306.3677
  14   2.0000     -11.258247      -306.3525
  15   2.0000     -11.242731      -305.9303
  16   2.0000     -11.242583      -305.9262
  17   2.0000     -11.239499      -305.8423
  18   2.0000      -7.753040      -210.9709
  19   2.0000      -7.743435      -210.7096
  20   2.0000      -5.611354      -152.6927
  21   2.0000      -5.601961      -152.4371
  22   2.0000      -5.596841      -152.2978
  23   2.0000      -5.595904      -152.2723
  24   2.0000      -5.586758      -152.0234
  25   2.0000      -5.586615      -152.0195
  26   2.0000      -2.306308       -62.7578
  27   2.0000      -2.300711       -62.6055
  28   2.0000      -2.299935       -62.5844
  29   2.0000      -2.296938       -62.5029
  30   2.0000      -2.290856       -62.3374
  31   2.0000      -2.290747       -62.3344
  32   2.0000      -2.285786       -62.1994
  33   2.0000      -2.285761       -62.1987
  34   2.0000      -2.276025       -61.9338
  35   2.0000      -2.276009       -61.9334
  36   2.0000      -1.457838       -39.6698
  37   2.0000      -1.384963       -37.6868
  38   2.0000      -1.361875       -37.0585
  39   2.0000      -1.197445       -32.5841
  40   2.0000      -1.168566       -31.7983
  41   2.0000      -1.165419       -31.7127
  42   2.0000      -1.054112       -28.6838
  43   2.0000      -1.044033       -28.4096
  44   2.0000      -1.035905       -28.1884
  45   2.0000      -0.941390       -25.6165
  46   2.0000      -0.939956       -25.5775
  47   2.0000      -0.932791       -25.3825
  48   2.0000      -0.922041       -25.0900
  49   2.0000      -0.906002       -24.6536
  50   2.0000      -0.853702       -23.2304
  51   2.0000      -0.831380       -22.6230
  52   2.0000      -0.813363       -22.1327
  53   2.0000      -0.787248       -21.4221
  54   2.0000      -0.774708       -21.0809
  55   2.0000      -0.745848       -20.2956
  56   2.0000      -0.730227       -19.8705
  57   2.0000      -0.699623       -19.0377
  58   2.0000      -0.693699       -18.8765
  59   2.0000      -0.657955       -17.9039
  60   2.0000      -0.641020       -17.4430
  61   2.0000      -0.638542       -17.3756
  62   2.0000      -0.633811       -17.2469
  63   2.0000      -0.630699       -17.1622
  64   2.0000      -0.615902       -16.7595
  65   2.0000      -0.608714       -16.5639
  66   2.0000      -0.596604       -16.2344
  67   2.0000      -0.592756       -16.1297
  68   2.0000      -0.587904       -15.9977
  69   2.0000      -0.567182       -15.4338
  70   2.0000      -0.565371       -15.3845
  71   2.0000      -0.557380       -15.1671
  72   2.0000      -0.556486       -15.1428
  73   2.0000      -0.548435       -14.9237
  74   2.0000      -0.544999       -14.8302
  75   2.0000      -0.533021       -14.5042
  76   2.0000      -0.526241       -14.3197
  77   2.0000      -0.515711       -14.0332
  78   2.0000      -0.508492       -13.8368
  79   2.0000      -0.499339       -13.5877
  80   2.0000      -0.481229       -13.0949
  81   2.0000      -0.476860       -12.9760
  82   2.0000      -0.467962       -12.7339
  83   2.0000      -0.432492       -11.7687
  84   2.0000      -0.424406       -11.5487
  85   2.0000      -0.390774       -10.6335
  86   2.0000      -0.385708       -10.4957
  87   2.0000      -0.378532       -10.3004
  88   2.0000      -0.343206        -9.3391
  89   2.0000      -0.338828        -9.2200
  90   2.0000      -0.333227        -9.0676
  91   2.0000      -0.315423        -8.5831
  92   0.0000      -0.032778        -0.8919
  93   0.0000       0.080230         2.1832
  94   0.0000       0.085983         2.3397
  95   0.0000       0.097546         2.6544
  96   0.0000       0.118748         3.2313

MULLIKEN ATOMIC CHARGES
-----------------------
   0 H :    0.083959
   1 H :    0.035254
   2 H :    0.060928
   3 H :    0.047056
   4 H :    0.049068
   5 H :    0.122482
   6 H :    0.221472
   7 H :    0.038932
   8 H :    0.056280
   9 H :    0.051519
  10 H :    0.039019
  11 H :   -0.017150
  12 H :    0.031044
  13 H :    0.027056
  14 H :    0.026231
  15 H :    0.039577
  16 H :   -0.004971
  17 H :    0.215607
  18 N :   -0.388652
  19 C :    0.006173
  20 C :    0.338303
  21 O :   -0.260910
  22 C :    0.179558
  23 O :   -0.451837
  24 C :   -0.021704
  25 C :   -0.271281
  26 C :    0.309234
  27 C :   -0.292482
  28 C :    0.344135
  29 N :   -0.635670
  30 C :    0.065273
  31 C :    0.037789
  32 C :    0.178053
  33 C :   -0.263814
  34 I :    0.095658
  35 O :   -0.346100
  36 I :    0.085502
  37 C :    0.169411
Sum of atomic charges:    0.0000000

LOEWDIN ATOMIC CHARGES
----------------------
   0 H :    0.031680
   1 H :    0.006422
   2 H :    0.032332
   3 H :    0.022674
   4 H :    0.015147
   5 H :    0.037856
   6 H :    0.081397
   7 H :    0.007182
   8 H :    0.034335
   9 H :    0.030723
  10 H :    0.013992
  11 H :   -0.014966
  12 H :    0.013993
  13 H :    0.010575
  14 H :    0.012154
  15 H :    0.022972
  16 H :   -0.011536
  17 H :    0.066983
  18 N :   -0.242372
  19 C :   -0.012862
  20 C :    0.237143
  21 O :   -0.114497
  22 C :    0.125498
  23 O :   -0.181968
  24 C :   -0.033918
  25 C :   -0.056313
  26 C :    0.102076
  27 C :   -0.225262
  28 C :    0.082671
  29 N :   -0.197862
  30 C :   -0.016981
  31 C :   -0.006959
  32 C :    0.065980
  33 C :   -0.213799
  34 I :    0.172599
  35 O :   -0.106624
  36 I :    0.148398
  37 C :    0.061138

  Mayer bond orders larger than 0.100000
B(  0-H , 19-C ) :   0.9473 B(  1-H , 22-C ) :   0.9546 B(  2-H , 24-C ) :   0.9764
B(  3-H , 24-C ) :   0.9746 B(  4-H , 24-C ) :   0.9758 B(  5-H , 18-N ) :   0.9484
B(  6-H , 23-O ) :   0.9306 B(  7-H , 28-C ) :   0.9717 B(  8-H , 30-C ) :   0.9993
B(  9-H , 31-C ) :   1.0025 B( 10-H , 32-C ) :   0.9923 B( 11-H , 32-C ) :   0.9733
B( 12-H , 32-C ) :   0.9902 B( 13-H , 37-C ) :   0.9912 B( 14-H , 37-C ) :   0.9918
B( 15-H , 28-C ) :   0.9608 B( 16-H , 37-C ) :   0.9757 B( 17-H , 35-O ) :   0.9287
B( 18-N , 19-C ) :   1.2652 B( 18-N , 20-C ) :   0.3548 B( 18-N , 21-O ) :   0.1322
B( 19-C , 20-C ) :   0.6045 B( 19-C , 22-C ) :   0.9392 B( 20-C , 21-O ) :   2.1513
B( 22-C , 23-O ) :   0.9525 B( 22-C , 24-C ) :   1.0179 B( 25-C , 26-C ) :   1.3816
B( 25-C , 28-C ) :   0.9580 B( 25-C , 31-C ) :   1.4762 B( 26-C , 27-C ) :   1.3972
B( 26-C , 35-O ) :   1.1654 B( 27-C , 30-C ) :   1.4259 B( 27-C , 34-I ) :   1.0153
B( 28-C , 29-N ) :   0.9612 B( 29-N , 32-C ) :   0.9278 B( 29-N , 37-C ) :   0.9535
B( 30-C , 33-C ) :   1.4413 B( 31-C , 33-C ) :   1.3782 B( 33-C , 36-I ) :   1.0227

E(0)                                       ...  -1428.660306825
E(0)                                       ...  -1428.660306825
E(CORR)(strong-pairs)                      ...     -3.043812711
E(CORR)(weak-pairs)                        ...     -0.021107718
E(CORR)(corrected)                         ...     -3.064920429
E(TOT)                                     ...  -1431.725227255
E(CCSD(T))                                 ...  -1431.843659698
FINAL SINGLE POINT ENERGY     -1431.843659697905

DIPOLE MOMENT
-------------

Method             : SCF
Type of density    : Electron Density
Multiplicity       :   1
Irrep              :   0
Energy             : -1428.6603068255242306 Eh
Relativity type    :
Basis              : AO
                                X                 Y                 Z
Electronic contribution:    -27.149281622    -268.016855360     205.114675514
Nuclear contribution   :     26.924892471     267.808926568    -205.555314283
                        -----------------------------------------
Total Dipole Moment    :     -0.224389151      -0.207928792      -0.440638769
                        -----------------------------------------
Magnitude (a.u.)       :      0.536420916
Magnitude (Debye)      :      1.363473611

Rotational constants in cm-1:             0.005665             0.003499             0.002559
Rotational constants in MHz :           169.840484           104.898519            76.721320

                             ****ORCA TERMINATED NORMALLY****
TOTAL RUN TIME: 0 days 0 hours 34 minutes 42 seconds 21 msec
